TITLE = "title"
VARIABLES = "X", "Y", "Z"
ZONE T = "Rampant", N = 7489, E = 15158, DATAPACKING=POINT, ZONETYPE=FETRIANGLE
-34.5 53.8994 20.0533
-34.4971 47.8066 20.3353
-34.4971 51.5166 20.3762
-34.4971 53.5193 21.2428
-34.4957 49.5547 20.4539
-34.4929 44.7432 19.8789
-34.4929 45.8549 21.2032
-34.4886 55.6611 19.5587
-34.4857 44.3749 19.7794
-34.4843 56.3858 20.507
-34.4572 42.7117 19.3284
-34.4515 42.4266 20.3844
-34.4286 57.3786 18.8175
-34.4144 58.436 19.586
-34.3773 40.3781 19.6554
-34.373 40.984 18.6731
-34.3016 59.3558 19.0123
-34.2916 40.1846 18.2561
-34.2688 57.2836 21.334
-34.2688 59.6308 19.8857
-34.2503 43.226 21.7387
-34.2289 58.8942 17.8406
-34.1675 54.2338 22.3695
-34.129 46.0297 22.5548
-34.1061 38.4433 17.1798
-34.1061 59.5646 17.2942
-34.0362 52.6181 22.9227
-34.0234 61.0428 17.7479
-34.0119 56.7252 22.3791
-34.0105 48.6297 23.0712
-33.9748 42.9307 22.6666
-33.9663 36.1114 16.5053
-33.9648 60.1789 16.6688
-33.9634 58.7788 21.9444
-33.962 37.2842 15.8868
-33.9591 36.0436 16.4195
-33.9263 61.1684 16.9713
-33.9092 35.6345 15.7342
-33.8778 60.8052 21.394
-33.8735 38.143 8.12051
-33.8735 39.3428 9.69011
-33.8735 39.5126 8.25403
-33.8735 39.5126 11.1262
-33.8735 39.852 4.73605
-33.8735 39.852 14.6442
-33.8735 40.0132 6.86973
-33.8735 40.0132 12.5105
-33.8735 40.8296 5.58625
-33.8735 40.8296 13.7926
-33.8735 41.1113 3.53433
-33.8735 41.1113 15.8459
-33.8735 41.9293 4.45265
-33.8735 41.9293 14.9276
-33.8735 43.1496 2.23995
-33.8735 43.1496 17.1403
-33.8735 43.2735 3.50844
-33.8735 43.2735 15.8718
-33.8735 44.8145 2.78631
-33.8735 44.8145 16.5939
-33.8735 46.4964 2.31489
-33.8735 46.4964 17.0653
-33.8735 48.2581 2.10915
-33.8735 48.2581 17.2711
-33.8735 49.351 18.3788
-33.8735 50.035 2.17864
-33.8735 50.035 17.2016
-33.8735 51.7644 2.5179
-33.8735 51.7644 16.8623
-33.8735 51.8968 18.0014
-33.8735 53.3835 3.1174
-33.8735 53.3835 16.2628
-33.8735 53.7026 1.96745
-33.8735 54.8329 3.95398
-33.8735 54.8329 15.4249
-33.8735 56.0599 4.99902
-33.8735 56.0599 14.3812
-33.8735 56.2958 15.8459
-33.8735 57.0222 6.213
-33.8735 57.0222 13.1672
-33.8735 57.1546 4.32185
-33.8735 57.6841 7.55234
-33.8735 57.6841 11.8279
-33.8735 58.0202 8.96798
-33.8735 58.0202 10.4109
-33.8735 59.0113 12.0213
-33.8735 59.2642 8.12051
-33.8664 61.6945 16.8323
-33.8592 36.6359 14.6932
-33.845 38.944 13.843
-33.845 40.4528 3.76323
-33.845 40.4528 15.6156
-33.845 47.3755 0.818863
-33.845 50.0316 0.818863
-33.845 50.0316 18.5613
-33.845 56.0124 3.00023
-33.845 56.0124 16.3786
-33.8307 34.64 16.0421
-33.825 37.8205 11.3101
-33.8093 20.4738 12.471
-33.805 37.8799 7.52645
-33.805 45.3932 1.07638
-33.805 46.0348 18.466
-33.805 52.6571 1.23851
-33.805 52.6571 18.1417
-33.805 57.8776 4.55484
-33.805 57.8776 14.8254
-33.805 58.5751 13.8907
-33.805 59.5272 7.52645
-33.805 59.7699 10.7801
-33.795 61.9389 16.4917
-33.7836 44.1068 17.9632
-33.7679 34.8725 13.8757
-33.7651 15.1005 12.6849
-33.7636 38.1616 12.9315
-33.7636 48.7027 18.8311
-33.7636 51.4012 0.813413
-33.7636 51.4012 18.5654
-33.7608 36.0164 12.9765
-33.7593 34.7011 13.2885
-33.7536 36.1471 13.4465
-33.7508 58.9621 5.95277
-33.7494 34.1003 20.5915
-33.7465 21.879 10.6588
-33.7294 19.3485 10.4913
-33.7194 34.3243 11.4232
-33.7123 35.7567 11.5131
-33.7051 55.5185 23.3628
-33.698 37.3164 9.69011
-33.698 38.6199 5.39959
-33.698 38.6199 13.9806
-33.698 42.2348 2.09144
-33.698 42.2348 17.2888
-33.698 47.3314 0.5232
-33.698 47.3314 18.8556
-33.698 55.1723 2.09144
-33.698 55.1723 17.2888
-33.698 57.2276 3.56703
-33.698 57.2276 15.8132
-33.698 59.3507 12.9642
-33.698 60.0907 9.69011
-33.6951 39.3428 9.69011
-33.6951 39.5126 8.25403
-33.6951 39.5126 11.1262
-33.6951 40.0132 6.86973
-33.6951 40.0132 12.5105
-33.6951 40.2322 8.99114
-33.6951 40.2322 10.3891
-33.6951 40.5784 7.62319
-33.6951 40.5784 11.757
-33.6951 40.8296 5.58625
-33.6951 40.8296 13.7926
-33.6951 41.2573 6.33972
-33.6951 41.2573 13.0405
-33.6951 41.9293 4.45265
-33.6951 41.9293 14.9276
-33.6951 42.2416 5.19249
-33.6951 42.2416 14.1877
-33.6951 43.2735 3.50844
-33.6951 43.2735 15.8718
-33.6951 43.4907 4.23057
-33.6951 43.4907 15.1496
-33.6951 44.8145 2.78631
-33.6951 44.8145 16.5939
-33.6951 44.9537 15.8895
-33.6951 46.4964 2.31489
-33.6951 46.4964 17.0653
-33.6951 46.5694 16.3745
-33.6951 48.2581 2.10915
-33.6951 48.2581 17.2711
-33.6951 48.2716 2.79449
-33.6951 49.9926 16.5149
-33.6951 50.035 2.17864
-33.6951 50.035 17.2016
-33.6951 50.8276 3.03974
-33.6951 51.6609 16.1647
-33.6951 51.7644 2.5179
-33.6951 51.7644 16.8623
-33.6951 53.207 3.82999
-33.6951 53.207 15.5489
-33.6951 53.3835 3.1174
-33.6951 53.3835 16.2628
-33.6951 54.5698 4.68564
-33.6951 54.5698 14.6946
-33.6951 54.8329 3.95398
-33.6951 54.8329 15.4249
-33.6951 55.6933 5.74567
-33.6951 56.0599 4.99902
-33.6951 56.0599 14.3812
-33.6951 56.5284 6.96647
-33.6951 56.5284 12.4124
-33.6951 57.0222 6.213
-33.6951 57.0222 13.1672
-33.6951 57.0443 8.30036
-33.6951 57.0443 11.0799
-33.6951 57.2191 9.69011
-33.6951 57.6841 7.55234
-33.6951 57.6841 11.8279
-33.6951 58.0202 8.96798
-33.6951 58.0202 10.4109
-33.6837 15.1005 10.5744
-33.6823 22.7921 13.0419
-33.6766 63.1066 20.8258
-33.668 61.1362 15.3867
-33.6666 57.8895 23.0154
-33.6452 15.1005 9.88631
-33.6323 37.9495 6.38332
-33.6323 40.0947 3.50571
-33.6323 40.0947 15.8731
-33.6323 41.0774 16.6702
-33.6323 43.3583 1.43335
-33.6323 43.3583 17.9469
-33.6323 48.7027 0.36515
-33.6323 48.7027 19.0151
-33.6323 52.781 0.970101
-33.6323 52.781 18.4088
-33.6323 56.3298 2.71001
-33.6323 56.3298 16.6702
-33.6323 58.1678 4.3927
-33.6323 59.8701 7.45833
-33.6266 32.4422 19.9811
-33.6181 34.6366 13.2776
-33.6181 34.6417 13.2966
-33.6067 35.5972 10.0335
-33.6038 31.412 13.734
-33.5724 14.9987 12.8021
-33.5553 23.6237 8.61782
-33.5496 16.2054 8.81811
-33.5439 37.4454 11.9396
-33.5439 39.1613 4.3491
-33.5439 39.1613 15.0311
-33.5439 41.0146 2.65279
-33.5439 44.5922 0.899251
-33.5439 51.4776 0.56135
-33.5439 51.4776 18.8189
-33.5439 58.9706 14.0596
-33.541 15.1005 13.4002
-33.541 34.1784 9.52524
-33.5353 12.3155 12.8647
-33.5011 14.0126 11.0185
-33.4896 64.0773 18.6922
-33.4882 46.1027 24.1299
-33.4725 22.3135 13.8062
-33.4568 37.0992 10.8319
-33.4568 37.773 6.32882
-33.4568 38.3517 14.0951
-33.4568 40.9518 16.7846
-33.4568 45.9058 0.486413
-33.4568 45.9058 18.8938
-33.4568 48.7027 0.211188
-33.4568 48.7027 19.169
-33.4568 50.1131 0.280675
-33.4568 50.1131 19.0995
-33.4568 54.1353 18.0831
-33.4568 55.3437 1.88979
-33.4568 57.4533 15.9753
-33.4568 59.0537 5.28514
-33.4568 60.0534 7.42154
-33.4568 60.0534 11.9587
-33.4568 60.3079 8.54697
-33.4525 14.9987 10.0035
-33.4411 32.6102 13.0596
-33.4397 58.3053 15.0638
-33.4297 27.7716 14.1346
-33.3826 42.2365 10.479
-33.3826 42.318 10.9463
-33.3826 45.2575 5.15434
-33.3826 47.6301 14.9207
-33.3826 48.2038 15.0025
-33.3826 52.9592 5.62985
-33.3826 54.7803 11.7175
-33.3712 11.7198 11.8742
-33.3698 46.9801 14.7068
-33.3698 47.8643 14.8553
-33.3683 42.3893 10.6221
-33.3683 45.658 5.10938
-33.3683 53.1357 5.92688
-33.3683 54.4867 11.945
-33.3669 54.0267 12.5582
-33.3655 47.8456 14.8472
-33.3655 54.4612 11.9232
-33.3641 42.447 10.6302
-33.3626 42.3553 9.90129
-33.3583 53.0186 5.97457
-33.3583 53.65 6.52229
-33.3569 45.6801 5.22383
-33.3569 46.527 4.91454
-33.3512 42.0227 1.8421
-33.3484 14.9987 13.5174
-33.3455 41.9276 9.95988
-33.3455 46.2927 4.54803
-33.3455 46.9258 14.9984
-33.3455 53.9894 6.24298
-33.3455 54.3797 12.7012
-33.3398 15.1005 8.37393
-33.3298 51.1636 24.4228
-33.317 29.2753 14.5801
-33.317 48.3531 24.5291
-33.3141 13.0911 10.3986
-33.307 59.5646 17.2942
-33.2898 43.3685 24.4051
-33.2898 43.5043 24.416
-33.267 61.9321 13.7245
-33.2513 18.3506 6.91605
-33.247 36.8701 9.69011
-33.247 36.9566 8.53334
-33.247 36.9566 10.8469
-33.247 37.2146 7.39429
-33.247 37.6389 6.28794
-33.247 37.6389 13.0923
-33.247 38.9661 4.2401
-33.247 38.9661 15.1401
-33.247 40.8567 2.50836
-33.247 40.8567 16.8718
-33.247 41.9819 17.5858
-33.247 43.2039 1.19491
-33.247 43.2039 18.1853
-33.247 44.5073 18.6608
-33.247 45.8718 19.0055
-33.247 47.2771 0.166225
-33.247 48.7027 0.0953751
-33.247 48.7027 19.2835
-33.247 51.5353 19.0055
-33.247 52.8998 18.6608
-33.247 54.2015 1.19491
-33.247 54.2015 18.1853
-33.247 55.4252 1.79441
-33.247 55.4252 17.5858
-33.247 57.5602 3.32723
-33.247 57.5602 16.0516
-33.247 59.181 5.23064
-33.247 59.181 14.1482
-33.247 59.7665 6.28794
-33.247 59.7665 13.0923
-33.247 60.1925 7.39429
-33.247 60.1925 11.9859
-33.247 60.4505 8.53334
-33.247 60.4505 10.8469
-33.247 60.5354 9.69011
-33.247 60.8731 17.6948
-33.2456 41.4388 10.6098
-33.2456 45.3797 4.37227
-33.2456 47.5368 15.5761
-33.2456 53.9147 5.48407
-33.2456 55.247 12.4083
-33.2428 63.2865 13.9357
-33.2313 59.1623 23.5931
-33.2156 35.5887 7.6409
-33.2114 28.5115 12.5091
-33.1914 34.2055 7.49784
-33.1885 29.041 12.9383
-33.17 65.5216 18.3311
-33.1685 61.1973 23.277
-33.1643 60.1789 16.6688
-33.1471 14.9987 8.49111
-33.1457 31.1252 22.6747
-33.1357 61.7098 23.1666
-33.13 37.1722 11.9941
-33.13 45.8617 0.339263
-33.13 50.1351 0.1308
-33.13 51.5455 0.339263
-33.13 52.9151 0.685338
-33.13 56.5793 16.8977
-33.13 58.4784 4.21967
-33.1172 40.6242 9.34676
-33.1172 40.6412 10.2351
-33.1172 41.1317 12.0009
-33.1172 41.8309 13.1522
-33.1172 42.5182 5.4609
-33.1172 43.6536 4.56438
-33.1172 45.5731 3.6406
-33.1172 45.804 15.8145
-33.1172 46.6084 3.35311
-33.1172 46.8511 16.0761
-33.1172 49.0744 16.2437
-33.1172 50.6409 16.0584
-33.1172 51.7525 3.61335
-33.1172 53.1544 4.21149
-33.1172 54.8312 5.4064
-33.1172 54.9907 13.8185
-33.1172 55.3285 13.4288
-33.1172 55.3335 5.94868
-33.1172 55.488 6.11627
-33.1172 55.6204 13.0923
-33.1172 56.5046 11.4287
-33.1172 56.5945 11.0063
-33.1172 56.7727 10.1643
-33.1172 61.4501 17.0585
-33.11 25.959 12.0963
-33.1015 25.8368 12.0745
-33.0815 26.105 6.03043
-33.0801 65.4622 16.538
-33.0544 26.2577 10.6711
-33.013 38.148 5.19794
-33.013 38.148 14.1823
-33.013 38.8931 15.181
-33.013 48.7027 19.3557
-33.013 56.6081 2.45523
-32.983 62.3106 12.5895
-32.9673 64.3693 22.5971
-32.9488 26.161 13.159
-32.9231 26.4308 21.4866
-32.9174 7.02372 12.6236
-32.9102 30.4785 5.74839
-32.886 28.4708 14.0583
-32.8817 27.0316 8.57149
-32.8674 24.5283 17.6376
-32.846 23.6712 15.4617
-32.8089 18.1877 5.64348
-32.8032 51.5726 25.2744
-32.8018 27.7716 14.1346
-32.8018 45.6037 25.363
-32.7975 6.04446 12.5636
-32.7847 6.74878 11.6344
-32.7847 41.2216 11.5949
-32.7761 39.7298 25.0891
-32.7661 22.3814 10.0484
-32.7661 36.753 9.69011
-32.7661 36.8395 8.52244
-32.7661 36.8395 10.8578
-32.7661 37.0228 7.71312
-32.7661 37.274 12.4614
-32.7661 37.5286 6.25388
-32.7661 37.5286 13.1263
-32.7661 38.1209 5.18704
-32.7661 38.1209 14.1932
-32.7661 38.5757 14.8022
-32.7661 38.8676 4.1856
-32.7661 39.7587 3.26455
-32.7661 39.7587 16.1157
-32.7661 40.7786 2.43615
-32.7661 40.7786 16.9427
-32.7661 41.9141 1.71539
-32.7661 41.9141 17.6648
-32.7661 43.1496 1.11044
-32.7661 43.1496 18.2698
-32.7661 44.4649 0.629475
-32.7661 44.4649 18.7507
-32.7661 45.843 0.282038
-32.7661 45.843 19.0982
-32.7661 47.2635 0.07085
-32.7661 47.2635 19.3094
-32.7661 48.7027 0
-32.7661 48.7027 19.3802
-32.7661 50.1436 0.07085
-32.7661 50.1436 19.3094
-32.7661 51.5641 0.282038
-32.7661 51.5641 19.0982
-32.7661 52.9405 0.629475
-32.7661 52.9405 18.7507
-32.7661 54.2575 1.11044
-32.7661 54.2575 18.2698
-32.7661 55.4931 1.71539
-32.7661 55.4931 17.6648
-32.7661 56.6285 2.43615
-32.7661 56.973 16.6634
-32.7661 57.6485 3.26455
-32.7661 57.6485 16.1157
-32.7661 58.5395 4.1856
-32.7661 58.5395 15.1946
-32.7661 59.2862 5.18704
-32.7661 59.2862 14.1932
-32.7661 59.8769 6.25388
-32.7661 59.8769 13.1263
-32.7661 60.3062 7.37113
-32.7661 60.3062 12.0091
-32.7661 60.5676 8.52244
-32.7661 60.5676 10.8578
-32.7661 60.6542 9.69011
-32.7661 67.2018 19.6854
-32.7647 24.659 13.4629
-32.7604 63.6632 18.5627
-32.7547 20.5366 12.3879
-32.7533 36.831 24.8275
-32.7447 42.3316 10.8837
-32.7447 43.2938 6.71032
-32.7447 43.5365 12.941
-32.7447 43.6027 6.3765
-32.7447 45.3338 5.1448
-32.7447 48.1342 14.9725
-32.7447 49.2 14.9684
-32.7447 50.5255 4.59708
-32.7447 50.9209 14.6782
-32.7447 51.0143 4.73333
-32.7447 52.9931 5.68708
-32.7447 54.7243 11.7611
-32.7447 55.2317 9.93944
-32.7447 55.2402 9.52252
-32.7333 20.4738 12.471
-32.719 33.956 24.4882
-32.719 57.6434 24.7866
-32.7119 34.3294 5.61078
-32.7033 48.516 16.0012
-32.6976 26.5496 4.67474
-32.6948 23.5864 8.66006
-32.6833 21.1323 4.67474
-32.6833 66.0613 14.3621
-32.6833 67.2527 22.0344
-32.6705 42.3893 10.6221
-32.6705 45.658 5.10938
-32.6705 47.8456 14.8472
-32.6705 53.1357 5.92688
-32.6705 54.4867 11.945
-32.6662 27.6969 7.07138
-32.6634 5.76782 11.5731
-32.6548 29.333 6.71032
-32.6377 63.9416 11.4723
-32.602 28.2875 23.6067
-32.5777 48.3175 15.9154
-32.5509 49.9544 3.56888
-32.5488 50.0185 3.57252
-32.5478 41.8869 6.83567
-32.5478 41.9463 12.6345
-32.5478 42.357 13.1849
-32.5478 42.6421 5.87647
-32.5478 43.1615 5.38869
-32.5478 43.248 14.0637
-32.5478 49.945 3.55204
-32.5478 50.0689 15.8105
-32.5478 51.335 3.84907
-32.5478 52.0359 4.0875
-32.5478 52.148 15.2477
-32.5478 56.2874 8.75134
-32.5478 56.3043 10.5294
-32.5392 34.2344 5.7116
-32.5149 68.1726 19.1786
-32.5135 32.7646 4.67474
-32.5107 34.2412 5.61214
-32.5064 25.4872 23.0835
-32.5007 43.6469 12.5132
-32.5007 43.8285 6.66263
-32.5007 50.4525 14.4616
-32.5007 50.7478 4.99629
-32.5007 54.8414 9.81546
-32.4878 15.1005 5.64348
-32.4843 49.9729 3.60249
-32.4721 64.97 18.1567
-32.4664 30.3377 5.75384
-32.4607 63.7362 23.8928
-32.445 35.7703 4.75513
-32.3623 26.105 6.03043
-32.3537 62.7128 10.3482
-32.348 22.7123 22.5099
-32.338 15.1005 14.715
-32.3309 44.2748 10.8646
-32.2995 34.0205 13.1182
-32.2966 14.9987 5.76065
-32.2909 41.2216 9.62743
-32.2909 41.2946 10.5417
-32.2909 41.3116 8.86852
-32.2909 41.3727 10.9055
-32.2909 41.5644 7.87389
-32.2909 42.1143 6.81523
-32.2909 43.2955 13.8825
-32.2909 44.1238 14.4875
-32.2909 45.0114 4.41314
-32.2909 45.4085 15.1374
-32.2909 45.4136 4.2401
-32.2909 46.3182 15.4399
-32.2909 46.4642 3.90084
-32.2909 47.2364 3.76595
-32.2909 47.4146 15.666
-32.2909 47.8643 15.7192
-32.2909 48.5822 3.64196
-32.2909 49.8364 3.69238
-32.2909 50.0384 3.72099
-32.2909 51.9494 15.1565
-32.2909 52.6605 14.839
-32.2909 53.7518 5.21293
-32.2909 53.8587 14.0869
-32.2909 54.0793 5.46908
-32.2909 54.7107 13.3062
-32.2909 54.8023 6.17485
-32.2909 55.3149 12.5309
-32.2909 55.5151 12.1998
-32.2909 55.5796 7.29755
-32.2909 55.9292 8.19953
-32.2909 56.1176 8.87533
-32.2709 15.1005 19.6105
-32.2338 45.1522 26.1655
-32.2324 48.7706 13.3757
-32.2238 41.8173 26.0755
-32.2081 15.1005 21.1147
-32.1739 69.1468 17.4346
-32.171 1.18887 12.1739
-32.1468 14.9987 14.8322
-32.1296 51.0244 6.79888
-32.1082 64.1826 9.57838
-32.0911 6.96432 12.4097
-32.0897 69.1043 22.6053
-32.0583 15.1005 4.67474
-32.0326 58.6566 25.5632
-32.0183 28.6796 24.9038
-32.0155 14.9987 21.2319
-31.9841 6.74878 11.6344
-31.9841 15.1005 22.0221
-31.9841 20.4839 23.1203
-31.9684 5.98166 12.3347
-31.9484 7.30884 13.6427
-31.9398 67.2307 19.695
-31.9084 10.9374 14.3485
-31.8899 62.8537 8.83309
-31.8671 14.9987 4.79055
-31.8628 5.76782 11.5731
-31.8585 67.5158 18.9674
-31.83 64.225 8.67641
-31.8157 -0.661046 11.0485
-31.8143 9.22325 17.3555
-31.8057 9.67639 18.8298
-31.8057 70.3806 20.7168
-31.7886 67.083 11.2052
-31.7772 55.5864 26.2404
-31.7729 8.27114 15.1728
-31.7629 14.9987 22.2251
-31.76 8.20325 17.2969
-31.7543 11.7198 11.8742
-31.7415 7.59397 15.8282
-31.7401 10.1312 21.0384
-31.7372 8.8923 19.5778
-31.7215 30.224 12.6263
-31.7187 7.49384 13.8852
-31.6958 23.1129 24.461
-31.6901 9.17912 20.9975
-31.6716 68.6444 12.6031
-31.6673 6.43141 13.9479
-31.663 65.4317 24.6449
-31.6601 6.36692 13.719
-31.6159 70.9509 17.8855
-31.6016 44.7093 26.9257
-31.5874 62.869 7.91613
-31.5488 37.2859 26.6696
-31.5445 8.0539 11.7093
-31.5374 52.0292 9.95171
-31.5289 49.4868 6.06449
-31.5246 52.1717 26.8195
-31.4989 15.1005 23.2633
-31.4818 2.55848 13.1059
-31.4818 33.5928 26.4243
-31.4718 67.7161 10.6343
-31.4604 10.2704 22.1502
-31.4275 69.3759 12.4914
-31.4175 7.23417 11.539
-31.4004 33.4401 12.2775
-31.3947 29.9151 26.111
-31.3876 9.33017 22.172
-31.3819 68.7887 24.0291
-31.3505 -4.84116 11.5635
-31.3433 49.5734 12.0976
-31.3034 7.20023 22.0071
-31.2948 67.526 9.80864
-31.2748 64.0841 9.52388
-31.2663 -1.64031 20.4757
-31.2591 59.6477 26.3072
-31.2363 11.8114 11.1166
-31.2249 69.6118 20.4661
-31.2235 14.9987 23.5685
-31.212 69.3929 11.5758
-31.1635 71.7333 15.6347
-31.155 -5.78988 11.5186
-31.1493 71.5313 23.3546
-31.135 -6.38559 11.3946
-31.1107 50.1725 7.95292
-31.1093 47.199 7.97336
-31.0907 70.0666 19.7931
-31.0822 47.4027 7.91068
-31.0722 50.3931 8.15048
-31.0679 62.8537 8.83309
-31.0665 51.1975 10.2719
-31.0593 46.2045 10.2242
-31.0593 49.9281 7.91204
-31.0551 26.0676 11.9546
-31.0551 46.1807 9.38899
-31.0551 46.2978 10.4517
-31.0551 46.3895 8.85217
-31.0551 46.639 8.51563
-31.0551 46.8783 11.1984
-31.0551 46.9937 8.19544
-31.0551 47.5605 11.6003
-31.0551 48.0408 11.7448
-31.0551 48.3022 7.69132
-31.0551 48.9081 7.6736
-31.0551 49.1525 11.7734
-31.0551 49.9009 11.5772
-31.0551 50.5781 11.1575
-31.0551 50.7156 8.46794
-31.0551 50.9481 8.74317
-31.0551 51.1127 10.4477
-31.0551 51.1992 9.27863
-31.0551 51.2637 9.76913
-31.0394 63.3747 25.8943
-31.0322 -0.963141 11.0226
-31.0294 10.3434 23.2075
-31.0222 9.48291 18.1485
-31.0222 64.2403 6.34653
-31.0151 46.1315 7.53327
-31.0151 52.3465 10.2092
-31.0094 8.74125 16.1238
-30.9937 33.1686 11.6685
-30.9923 64.1215 8.61782
-30.988 66.7707 11.0308
-30.9866 48.7808 11.7843
-30.9809 8.24907 15.1101
-30.9737 46.3776 10.5171
-30.9709 8.33902 17.6458
-30.968 7.74502 4.79055
-30.968 9.40993 23.2211
-30.9652 45.2507 8.80721
-30.9652 46.6016 12.0786
-30.9652 48.6722 6.75528
-30.9652 50.8564 12.05
-30.9652 52.1361 8.75952
-30.9623 12.9316 10.5594
-30.9566 72.6497 20.6446
-30.9523 8.84138 19.3393
-30.9509 10.1194 20.9566
-30.9452 7.48705 15.5979
-30.9409 62.8163 5.98002
-30.9395 48.4923 11.757
-30.9266 3.88227 5.76065
-30.9095 7.28678 13.5637
-30.9038 51.1466 10.0553
-30.9024 9.16554 20.9171
-30.9024 70.9661 12.4587
-30.8952 41.4422 27.5879
-30.881 6.48742 14.016
-30.8795 49.3527 12.4505
-30.8795 50.1793 7.14768
-30.8781 40.1745 27.5402
-30.8753 47.9237 27.6329
-30.8581 6.28206 13.4125
-30.8581 50.4236 8.33033
-30.8567 -7.74841 10.6915
-30.8324 -20.007 15.0188
-30.8239 15.1005 24.5386
-30.8239 36.5442 27.3944
-30.8153 11.7198 11.8742
-30.8153 46.5117 10.5798
-30.7996 -5.36729 21.409
-30.7811 46.3165 9.97759
-30.7782 -18.6849 10.8741
-30.7739 49.054 11.6671
-30.7682 47.7031 7.97608
-30.7654 62.869 7.91613
-30.7554 53.4293 27.4939
-30.7525 67.0813 25.3739
-30.7497 0.774755 10.3605
-30.7397 -19.0414 19.4715
-30.6769 3.65315 10.1574
-30.674 50.7936 10.6016
-30.6598 68.9465 12.2502
-30.6355 48.4193 7.87526
-30.6284 -36.9617 18.248
-30.6198 50.1317 11.2093
-30.6184 49.6243 8.02377
-30.6112 -36.4577 17.8065
-30.6112 9.3132 22.0194
-30.6055 47.031 8.45841
-30.6027 48.2801 11.5772
-30.5956 -20.9931 10.3019
-30.5956 27.7495 26.8413
-30.5856 50.3659 8.46386
-30.5727 50.7444 8.91076
-30.5699 46.2809 8.29627
-30.5699 46.3199 11.1275
-30.5699 49.5903 7.39157
-30.5699 49.6514 11.9723
-30.5699 51.6745 9.66286
-30.5613 26.3544 11.1289
-30.5456 46.4862 9.34812
-30.5413 73.0112 14.5311
-30.5385 7.34109 11.5499
-30.5356 -11.8063 9.77322
-30.5356 46.4472 9.89448
-30.5199 -57.9149 9.51026
-30.5199 -57.3447 6.89289
-30.5199 -56.5928 9.80592
-30.5199 -56.3739 8.175
-30.5199 -56.3739 11.4382
-30.5199 -55.729 6.62039
-30.5199 -55.729 12.9928
-30.5199 -54.6852 5.21429
-30.5199 -54.6852 14.3989
-30.5199 -53.2935 4.0221
-30.5199 -53.2935 15.5911
-30.5199 -51.6184 3.10105
-30.5199 -51.6184 16.5121
-30.5199 -49.738 2.49338
-30.5199 -49.738 17.1185
-30.5199 -49.4223 1.26849
-30.5199 -49.4223 18.3447
-30.5199 -47.7404 2.22905
-30.5199 -47.7404 17.3841
-30.5199 -45.7191 2.31761
-30.5199 -45.7191 17.2956
-30.5199 -45.0453 1.26849
-30.5199 -45.0453 18.3447
-30.5199 -43.7691 2.75634
-30.5199 -43.7691 16.8569
-30.5199 -42.9578 17.7874
-30.5199 -41.9802 3.52479
-30.5199 -41.9802 16.0884
-30.5199 -41.6578 2.37211
-30.5199 -40.4392 4.58754
-30.5199 -40.4392 15.0257
-30.5199 -39.8927 3.4335
-30.5199 -39.8927 16.1797
-30.5199 -39.2139 5.89418
-30.5199 -39.2139 13.719
-30.5199 -38.8897 4.30278
-30.5199 -38.8897 15.3104
-30.5199 -38.3636 7.38339
-30.5199 -38.3636 12.2298
-30.5199 -37.9291 8.98569
-30.5199 -37.9291 10.6275
-30.5199 -37.7068 5.80425
-30.5199 -37.7068 13.8089
-30.5199 -36.7275 8.03603
-30.5199 -36.7275 11.5772
-30.5199 -36.478 9.80592
-30.5199 -34.5127 4.79055
-30.5199 -34.4516 5.76065
-30.5199 47.8219 8.06056
-30.5199 73.59 16.414
-30.5171 15.1005 8.37393
-30.4914 -58.1525 11.024
-30.4914 -56.6505 5.16388
-30.4914 -56.6505 14.4493
-30.4914 -54.7565 3.27545
-30.4914 -54.7565 16.3377
-30.4914 -47.9865 0.891076
-30.4914 -46.4811 0.891076
-30.4914 -38.6843 4.16653
-30.4914 -38.6843 15.4467
-30.4914 -36.3151 8.58921
-30.4914 -36.3151 11.024
-30.4828 32.8546 10.5076
-30.4828 50.9294 9.88494
-30.4685 71.6535 21.1365
-30.46 -26.2662 10.5321
-30.4586 -40.6106 20.2509
-30.4514 -58.2781 8.57558
-30.4514 -57.4584 13.4084
-30.4514 -53.6618 2.42253
-30.4514 -53.6618 17.1907
-30.4514 -44.9656 18.6567
-30.4514 -39.6246 3.20051
-30.4457 60.0075 27.062
-30.4429 -34.6485 18.3406
-30.4414 50.2488 11.0226
-30.4357 -20.4449 9.55794
-30.4243 47.6165 11.2938
-30.41 -58.0897 7.33979
-30.41 -58.0897 12.2734
-30.41 -49.5275 0.855651
-30.41 -49.5275 18.7575
-30.41 -48.0035 18.9265
-30.41 -42.0464 17.9237
-30.41 -37.5999 5.05624
-30.41 -36.0639 8.56196
-30.41 -36.0639 11.0512
-30.4072 14.5846 8.89032
-30.4029 46.7832 10.5921
-30.3901 -38.7285 18.0559
-30.3829 67.7806 7.303
-30.3772 -37.1942 14.0201
-30.3701 49.1694 11.46
-30.3686 -37.2893 16.8528
-30.3558 11.8114 11.1166
-30.3487 72.054 20.4457
-30.3472 -39.8588 18.6758
-30.3444 -58.621 9.80592
-30.3444 -56.9628 5.00855
-30.3444 -56.9628 14.6046
-30.3444 -52.4721 1.60775
-30.3444 -52.4721 18.0054
-30.3444 -43.4194 1.10635
-30.3444 -43.4194 18.5068
-30.3444 -40.6666 2.26311
-30.3444 -40.6666 17.3501
-30.3444 -38.4009 15.6333
-30.343 10.3281 22.8696
-30.343 74.2535 18.5695
-30.3415 -56.5928 9.80592
-30.3415 -56.3739 8.175
-30.3415 -56.3739 11.4382
-30.3415 -55.7493 9.80592
-30.3415 -55.729 6.62039
-30.3415 -55.729 12.9928
-30.3415 -55.5355 8.27038
-30.3415 -55.5355 11.3428
-30.3415 -54.9059 6.81114
-30.3415 -54.9059 12.8021
-30.3415 -54.6852 5.21429
-30.3415 -54.6852 14.3989
-30.3415 -53.891 5.50178
-30.3415 -53.2935 4.0221
-30.3415 -53.2935 15.5911
-30.3415 -52.5434 4.40905
-30.3415 -52.5434 15.2041
-30.3415 -51.6184 3.10105
-30.3415 -51.6184 16.5121
-30.3415 -50.9277 16.0271
-30.3415 -49.738 2.49338
-30.3415 -49.738 17.1185
-30.3415 -49.1287 3.07516
-30.3415 -49.1287 16.538
-30.3415 -47.7404 2.22905
-30.3415 -47.7404 17.3841
-30.3415 -47.233 2.90213
-30.3415 -47.233 16.7111
-30.3415 -45.7191 2.31761
-30.3415 -45.7191 17.2956
-30.3415 -45.3389 3.07516
-30.3415 -45.3389 16.538
-30.3415 -43.7691 2.75634
-30.3415 -43.7691 16.8569
-30.3415 -43.5382 3.5861
-30.3415 -43.5382 16.0271
-30.3415 -41.9802 3.52479
-30.3415 -41.9802 16.0884
-30.3415 -41.9242 4.40905
-30.3415 -41.9242 15.2041
-30.3415 -40.5767 5.50178
-30.3415 -40.5767 14.1114
-30.3415 -40.4392 4.58754
-30.3415 -40.4392 15.0257
-30.3415 -39.5618 6.81114
-30.3415 -39.5618 12.8021
-30.3415 -39.2139 5.89418
-30.3415 -39.2139 13.719
-30.3415 -38.9321 8.27038
-30.3415 -38.9321 11.3428
-30.3415 -38.3636 7.38339
-30.3415 -38.3636 12.2298
-30.3415 -37.9291 8.98569
-30.3415 -37.9291 10.6275
-30.3415 -31.4867 14.0256
-30.3415 -31.2406 12.8416
-30.3401 69.4489 11.6071
-30.3387 -42.7966 20.988
-30.3387 -33.452 18.2548
-30.3358 -43.0155 20.9893
-30.3287 -35.8823 19.5342
-30.3273 50.8428 9.85769
-30.3244 14.9987 8.49111
-30.3216 -33.6489 16.9604
-30.3216 9.43709 24.3901
-30.3173 -40.6157 19.0328
-30.3158 50.2743 8.56604
-30.3101 -31.9127 15.4181
-30.3059 -34.511 15.2614
-30.293 -32.3947 13.7871
-30.2916 10.3739 24.5482
-30.2916 14.9987 8.32488
-30.2902 -33.1736 16.053
-30.2873 -32.6815 14.7995
-30.2802 -32.1078 12.302
-30.2787 -58.3087 12.3225
-30.2787 -56.155 3.92128
-30.2787 -56.155 15.6919
-30.2787 -53.8655 2.18818
-30.2787 -53.8655 17.425
-30.2787 -49.5734 0.6758
-30.2787 -46.4489 0.502763
-30.2787 -44.8943 18.9374
-30.2787 -41.9429 1.52736
-30.2787 -41.9429 18.0858
-30.2787 -37.4064 4.96087
-30.2787 -37.4064 14.6523
-30.2787 -35.8399 8.53743
-30.2702 -32.5644 16.8678
-30.2673 -44.173 21.2182
-30.2559 -30.9487 10.2147
-30.2559 -7.71786 8.87806
-30.2545 -36.2913 15.6592
-30.2473 -42.3265 19.6486
-30.2459 73.4949 23.9664
-30.2416 18.1877 5.64348
-30.2402 -29.7878 9.45303
-30.2345 -34.6366 19.5587
-30.2245 4.0435 8.75816
-30.2117 9.39806 23.0058
-30.2102 -31.8889 10.216
-30.2003 13.2744 25.0945
-30.1988 -31.9127 18.59
-30.1974 -24.2041 20.2631
-30.1903 -44.8739 0.600863
-30.1774 -35.5446 14.3526
-30.1731 72.9637 12.4274
-30.1532 15.1005 5.64348
-30.1489 -44.268 20.0928
-30.1489 -19.6303 8.21588
-30.1403 -35.0253 12.9724
-30.1318 26.7702 9.99667
-30.1118 -31.8906 8.74862
-30.1061 -32.9259 19.6609
-30.1061 64.9157 26.5769
-30.1032 -58.923 9.80592
-30.1032 -58.8144 8.51563
-30.1032 -58.4903 7.24987
-30.1032 -58.4903 12.3633
-30.1032 -57.9557 6.03043
-30.1032 -57.2225 14.7314
-30.1032 -55.213 2.87896
-30.1032 -55.213 16.7342
-30.1032 -53.9758 2.06283
-30.1032 -53.9758 17.5504
-30.1032 -52.6113 1.39111
-30.1032 -52.6113 18.2221
-30.1032 -51.1483 0.874726
-30.1032 -51.1483 18.7385
-30.1032 -49.6124 19.0873
-30.1032 -48.0306 0.350163
-30.1032 -48.0306 19.263
-30.1032 -46.4353 0.350163
-30.1032 -46.4353 19.263
-30.1032 -43.3193 18.7385
-30.1032 -40.4918 2.06283
-30.1032 -40.4918 17.5504
-30.1032 -39.2546 2.87896
-30.1032 -39.2546 16.7342
-30.1032 -38.165 3.82454
-30.1032 -37.2451 14.7314
-30.1032 -36.512 6.03043
-30.1032 -36.512 13.5828
-30.1032 -35.9774 7.24987
-30.1032 -35.9774 12.3633
-30.1032 -35.6515 8.51563
-30.1032 -35.6515 11.0976
-30.1032 -35.5429 9.80592
-30.0847 15.1005 25.6968
-30.0818 2.7825 23.9514
-30.0747 71.5975 13.7381
-30.0661 46.7119 9.84543
-30.0661 46.7493 9.41761
-30.0661 46.958 10.5267
-30.0661 47.0361 10.6316
-30.0661 47.0819 10.043
-30.0661 47.0819 10.4068
-30.0661 47.0921 8.78813
-30.0661 47.2499 8.63417
-30.0661 47.5554 11.0512
-30.0661 47.5639 8.65052
-30.0661 47.7778 9.88222
-30.0661 47.7879 8.54833
-30.0661 47.8151 9.45576
-30.0661 47.9169 8.25539
-30.0661 47.9373 10.1411
-30.0661 48.0069 9.16009
-30.0661 48.2122 8.17364
-30.0661 48.2513 11.3183
-30.0661 48.3005 8.99523
-30.0661 48.3005 10.385
-30.0661 48.5058 11.0785
-30.0661 48.7333 11.0431
-30.0661 48.7621 8.92302
-30.0661 48.7621 10.4572
-30.0661 48.9522 11.1017
-30.0661 49.1559 11.3183
-30.0661 49.2102 9.04156
-30.0661 49.2102 10.3387
-30.0661 49.4902 8.25539
-30.0661 49.5241 8.42843
-30.0661 49.5343 10.0593
-30.0661 49.5903 9.40534
-30.0661 49.6531 9.71463
-30.0661 49.6616 8.58103
-30.0661 49.9875 8.66687
-30.0661 50.052 10.9354
-30.0661 50.1572 8.63417
-30.0661 50.2998 10.0852
-30.0661 50.371 10.6316
-30.0661 50.4355 9.93399
-30.0661 50.4474 10.5267
-30.0661 50.539 9.17781
-30.0661 50.6952 9.84543
-30.0533 -45.7615 20.2604
-30.0518 -34.5025 10.231
-30.029 -53.6194 11.0635
-30.029 -50.6799 5.27015
-30.029 -47.7336 15.1183
-30.029 -42.9782 5.74703
-30.029 -41.1571 11.8333
-30.0262 4.23867 7.85754
-30.0247 -31.8872 7.60684
-30.0233 -36.03 20.6991
-30.0176 -31.8872 7.53872
-30.0162 -53.5481 10.7392
-30.0162 -50.2777 5.22519
-30.0162 -48.0917 14.9643
-30.0162 -42.8017 6.04269
-30.0162 -41.449 12.0609
-30.0147 -34.4397 9.46938
-30.0076 74.2247 14.2872
-30.0033 -46.5168 20.3326
-29.9976 -58.8857 11.1057
-29.9976 -44.84 19.1431
-29.9976 -41.8224 1.33934
-29.9976 -41.8224 18.2739
-29.9919 -54.0098 10.0757
-29.9919 -49.6429 4.6652
-29.9919 -49.0116 15.1156
-29.9919 -41.948 6.35879
-29.9919 -41.556 12.8184
-29.9919 3.40876 10.524
-29.9905 -38.8812 21.6256
-29.9762 -10.6404 10.5798
-29.9619 14.9987 5.76065
-29.9534 -48.2411 21.4553
-29.9134 -17.7142 21.8082
-29.8934 -58.6277 12.3947
-29.8934 -58.0863 5.9841
-29.8934 -57.343 14.7913
-29.8934 -56.4129 3.75233
-29.8934 -54.4985 10.7256
-29.8934 -50.5577 4.48808
-29.8934 -48.4006 15.6933
-29.8934 -42.0227 5.59988
-29.8934 -40.6887 12.5255
-29.8934 -39.1579 2.79449
-29.8934 -39.1579 16.8187
-29.8934 -38.0547 3.75233
-29.8934 -36.3813 5.9841
-29.8934 -35.5106 8.50064
-29.8934 -35.5106 11.1126
-29.8934 -35.4003 9.80592
-29.8934 14.9987 25.8126
-29.892 0.100981 10.3196
-29.8834 -19.3434 6.84793
-29.8792 32.7477 7.64227
-29.8578 -45.3389 22.3995
-29.8406 -31.8838 5.76065
-29.8392 75.1479 21.4798
-29.8335 -39.6585 22.2742
-29.8306 71.8588 12.9587
-29.8021 -49.0914 20.2958
-29.8007 -41.1673 22.6121
-29.7964 -20.9931 10.2964
-29.7935 27.3303 8.58648
-29.7821 70.5385 8.08781
-29.7764 -55.3403 2.7686
-29.7764 -55.3403 16.8446
-29.7764 -46.4234 19.4143
-29.7764 -44.8179 0.377413
-29.765 32.9343 6.18167
-29.7636 -55.3132 9.46393
-29.7636 -55.3064 9.80592
-29.7636 -55.2962 10.3509
-29.7636 -54.8057 12.1181
-29.7636 -54.4884 12.6386
-29.7636 -54.1048 13.2694